# vtk DataFile Version 1.0
Unstructured Grid Example
ASCII

DATASET UNSTRUCTURED_GRID

POINTS 8 float
3.0 1.5 2.0
3.0 0.0 2.0
3.0 1.5 0.0
3.0 0.0 0.0
0.0 1.5 2.0
0.0 0.0 2.0
0.0 1.5 0.0
0.0 0.0 0.0

CELLS 1 9
8 4 5 7 6 0 1 3 2

CELL_TYPES 1
12

POINT_DATA 8
VECTORS vectors float
-0.00016138 -0.00026069  0.00090703
 0.          0.          0.        
 0.          0.          0.        
 0.          0.          0.        
 0.          0.          0.        
 0.          0.          0.        
 0.          0.          0.        
 0.          0.          0.        